42
	Energy:      85.1906583
C          8.32751        5.65943       -0.74344
C          9.04787        4.44338       -0.74067
C         10.44981        4.39543       -0.83617
C         11.18293        5.56793       -0.93866
C         10.51884        6.78529       -0.94436
C          9.11673        6.82716       -0.84779
C          3.98459        8.34644       -0.62883
C          4.67314        9.57531       -0.74518
C          4.00818       10.81372       -0.77913
C          2.62493       10.86572       -0.69814
C          1.90707        9.68501       -0.58109
C          2.57754        8.44956       -0.54608
C          3.84149        3.24611       -0.37267
C          4.45979        1.97504       -0.37143
C          3.72674        0.77834       -0.28527
C          2.34332        0.81197       -0.19863
C          1.69303        2.03687       -0.19528
C          2.43149        3.23049       -0.27930
Q         2.29247       11.48147       -0.71624
Q        11.88087        5.54553       -0.98741
Q         1.97698        0.21693       -0.15723
C          6.03966        4.53816       -0.54393
C          6.82363        5.70694       -0.64952
C          6.10666        6.92252       -0.66815
C          4.70033        7.01985       -0.59794
C          4.00778        5.79354       -0.50291
C          4.63027        4.52712       -0.47114
H          8.54888        3.48207       -0.66636
H         10.95730        3.43408       -0.83069
H        11.08099        7.71224       -1.02465
H          8.67416        7.81847       -0.86000
H          5.75550        9.62109       -0.81577
H         4.58363       11.73153       -0.87033
H          0.82228        9.71107       -0.51635
H          1.94357        7.57329       -0.45119
H          5.53735        1.86203       -0.43956
H         4.24967       -0.17476       -0.28829
H          0.60888        2.07792       -0.12797
H          1.84802        4.14606       -0.26840
H          6.55316        3.58752       -0.51825
H          6.67251        7.84027       -0.74310
H          2.92859        5.82621       -0.45464
