48
	Energy:      42.3353471
C         10.66747        5.69574       -0.75777
C         11.29921        4.44794       -0.72977
C         12.69614        4.36621       -0.78945
C         13.45994        5.52985       -0.87681
C         12.83354        6.77588       -0.90426
C         11.43653        6.86031       -0.84472
C          2.51559       10.63913       -0.62278
C          3.21127       11.84818       -0.72449
C          2.51152       13.06160       -0.74613
C          1.11905       13.06625       -0.66622
C          0.42173       11.86268       -0.56437
C          1.11915       10.64799       -0.54250
C          2.47225        1.15192       -0.34692
C          3.18803       -0.04976       -0.35918
C          2.50774       -1.27292       -0.30770
C          1.11465       -1.29438       -0.24412
C          0.39759       -0.09799       -0.23174
C          1.07559        1.12663       -0.28313
Q         0.76999       13.67291       -0.67735
Q        14.15806        5.48845       -0.90712
Q         0.77514       -1.90599       -0.21842
C          5.88872        4.66034       -0.54727
C          6.60625        5.85932       -0.60505
C          5.92381        7.08006       -0.61697
C          4.52538        7.10166       -0.57191
C          3.81037        5.90022       -0.51434
C          4.49140        4.67909       -0.50207
C          3.82385        8.35188       -0.58730
C          3.22921        9.39702       -0.60241
C          8.03826        5.82843       -0.65512
C          9.23864        5.77753       -0.70024
C          3.76374        3.44582       -0.44557
C          3.16850        2.40235       -0.39992
H         10.71358        3.53360       -0.66238
H         13.18349        3.39488       -0.76806
H         13.42858        7.68291       -0.97240
H         10.95900        7.83742       -0.86751
H          4.29721       11.85714       -0.78785
H          3.05540       13.99934       -0.82557
H         -0.66344       11.86564       -0.50211
H          0.56440        9.71560       -0.46307
H          4.27477       -0.04503       -0.40870
H          3.06713       -2.20480       -0.31744
H         -0.68808       -0.11436       -0.18225
H          0.50606        2.05339       -0.27297
H         6.41919        3.71033       -0.53860
H         6.48072        8.01356       -0.66251
H         2.72303        5.91610       -0.48008
