18
	Energy:       9.8671766
C         -1.99954        1.09560        0.00144
C         -1.29895       -0.11432        0.00132
C          0.09916       -0.11229        0.00153
C          0.79664        1.09943        0.00185
C          0.09589        2.30921        0.00183
C         -1.30218        2.30738        0.00166
C          0.80944        3.54911        0.00176
C          1.40828        4.58999        0.00146
Q         1.75732        5.19676        0.00122
C          0.81641       -1.35007        0.00126
C          1.41911       -2.38872        0.00089
Q         1.77064       -2.99405        0.00063
C         -3.43011        1.09403        0.00134
C         -4.63096        1.09355        0.00137
Q        -5.33096        1.09353        0.00142
H        -1.84229       -1.05836        0.00104
H         1.88588        1.10091        0.00203
H        -1.84808        3.24995        0.00166
